t 0 /NodeList/1/$ns3::Ipv4L3Protocol/Tx(1) ns3::Ipv4Header (tos 0x0 DSCP Default ECN Not-ECT ttl 64 id 0 protocol 6 offset (bytes) 0 flags [none] length: 56 10.1.1.1 > 10.1.2.2) ns3::TcpHeader (49153 > 2430 [SYN] Seq=0 Ack=0 Win=65535 ns3::TcpOptionTS(0;0) ns3::TcpOptionWinScale(2) ns3::TcpOptionSackPermitted([sack_perm]) ns3::TcpOptionEnd(EOL))
r 0.0450464 /NodeList/0/$ns3::Ipv4L3Protocol/Rx(1) ns3::Ipv4Header (tos 0x0 DSCP Default ECN Not-ECT ttl 64 id 0 protocol 6 offset (bytes) 0 flags [none] length: 56 10.1.1.1 > 10.1.2.2) ns3::TcpHeader (49153 > 2430 [SYN] Seq=0 Ack=0 Win=65535 ns3::TcpOptionTS(0;0) ns3::TcpOptionWinScale(2) ns3::TcpOptionSackPermitted([sack_perm]) ns3::TcpOptionEnd(EOL))
t 0.0450464 /NodeList/0/$ns3::Ipv4L3Protocol/Tx(2) ns3::Ipv4Header (tos 0x0 DSCP Default ECN Not-ECT ttl 63 id 0 protocol 6 offset (bytes) 0 flags [none] length: 56 10.1.1.1 > 10.1.2.2) ns3::TcpHeader (49153 > 2430 [SYN] Seq=0 Ack=0 Win=65535 ns3::TcpOptionTS(0;0) ns3::TcpOptionWinScale(2) ns3::TcpOptionSackPermitted([sack_perm]) ns3::TcpOptionEnd(EOL))
r 0.0902784 /NodeList/2/$ns3::Ipv4L3Protocol/Rx(1) ns3::Ipv4Header (tos 0x0 DSCP Default ECN Not-ECT ttl 63 id 0 protocol 6 offset (bytes) 0 flags [none] length: 56 10.1.1.1 > 10.1.2.2) ns3::TcpHeader (49153 > 2430 [SYN] Seq=0 Ack=0 Win=65535 ns3::TcpOptionTS(0;0) ns3::TcpOptionWinScale(2) ns3::TcpOptionSackPermitted([sack_perm]) ns3::TcpOptionEnd(EOL))
t 0.0902784 /NodeList/2/$ns3::Ipv4L3Protocol/Tx(1) ns3::Ipv4Header (tos 0x0 DSCP Default ECN Not-ECT ttl 64 id 0 protocol 6 offset (bytes) 0 flags [none] length: 56 10.1.2.2 > 10.1.1.1) ns3::TcpHeader (2430 > 49153 [SYN|ACK] Seq=0 Ack=1 Win=65535 ns3::TcpOptionTS(90;0) ns3::TcpOptionWinScale(2) ns3::TcpOptionSackPermitted([sack_perm]) ns3::TcpOptionEnd(EOL))
r 0.13551 /NodeList/0/$ns3::Ipv4L3Protocol/Rx(2) ns3::Ipv4Header (tos 0x0 DSCP Default ECN Not-ECT ttl 64 id 0 protocol 6 offset (bytes) 0 flags [none] length: 56 10.1.2.2 > 10.1.1.1) ns3::TcpHeader (2430 > 49153 [SYN|ACK] Seq=0 Ack=1 Win=65535 ns3::TcpOptionTS(90;0) ns3::TcpOptionWinScale(2) ns3::TcpOptionSackPermitted([sack_perm]) ns3::TcpOptionEnd(EOL))
t 0.13551 /NodeList/0/$ns3::Ipv4L3Protocol/Tx(1) ns3::Ipv4Header (tos 0x0 DSCP Default ECN Not-ECT ttl 63 id 0 protocol 6 offset (bytes) 0 flags [none] length: 56 10.1.2.2 > 10.1.1.1) ns3::TcpHeader (2430 > 49153 [SYN|ACK] Seq=0 Ack=1 Win=65535 ns3::TcpOptionTS(90;0) ns3::TcpOptionWinScale(2) ns3::TcpOptionSackPermitted([sack_perm]) ns3::TcpOptionEnd(EOL))
r 0.180557 /NodeList/1/$ns3::Ipv4L3Protocol/Rx(1) ns3::Ipv4Header (tos 0x0 DSCP Default ECN Not-ECT ttl 63 id 0 protocol 6 offset (bytes) 0 flags [none] length: 56 10.1.2.2 > 10.1.1.1) ns3::TcpHeader (2430 > 49153 [SYN|ACK] Seq=0 Ack=1 Win=65535 ns3::TcpOptionTS(90;0) ns3::TcpOptionWinScale(2) ns3::TcpOptionSackPermitted([sack_perm]) ns3::TcpOptionEnd(EOL))
t 0.180557 /NodeList/1/$ns3::Ipv4L3Protocol/Tx(1) ns3::Ipv4Header (tos 0x0 DSCP Default ECN Not-ECT ttl 64 id 1 protocol 6 offset (bytes) 0 flags [none] length: 52 10.1.1.1 > 10.1.2.2) ns3::TcpHeader (49153 > 2430 [ACK] Seq=1 Ack=1 Win=32768 ns3::TcpOptionTS(180;90) ns3::TcpOptionEnd(EOL))
t 0.180557 /NodeList/1/$ns3::Ipv4L3Protocol/Tx(1) ns3::Ipv4Header (tos 0x0 DSCP Default ECN Not-ECT ttl 64 id 2 protocol 6 offset (bytes) 0 flags [none] length: 412 10.1.1.1 > 10.1.2.2) ns3::TcpHeader (49153 > 2430 [ACK] Seq=1 Ack=1 Win=32768 ns3::TcpOptionTS(180;90) ns3::TcpOptionEnd(EOL)) Payload (size=360)
r 0.2256 /NodeList/0/$ns3::Ipv4L3Protocol/Rx(1) ns3::Ipv4Header (tos 0x0 DSCP Default ECN Not-ECT ttl 64 id 1 protocol 6 offset (bytes) 0 flags [none] length: 52 10.1.1.1 > 10.1.2.2) ns3::TcpHeader (49153 > 2430 [ACK] Seq=1 Ack=1 Win=32768 ns3::TcpOptionTS(180;90) ns3::TcpOptionEnd(EOL))
t 0.2256 /NodeList/0/$ns3::Ipv4L3Protocol/Tx(2) ns3::Ipv4Header (tos 0x0 DSCP Default ECN Not-ECT ttl 63 id 1 protocol 6 offset (bytes) 0 flags [none] length: 52 10.1.1.1 > 10.1.2.2) ns3::TcpHeader (49153 > 2430 [ACK] Seq=1 Ack=1 Win=32768 ns3::TcpOptionTS(180;90) ns3::TcpOptionEnd(EOL))
r 0.225931 /NodeList/0/$ns3::Ipv4L3Protocol/Rx(1) ns3::Ipv4Header (tos 0x0 DSCP Default ECN Not-ECT ttl 64 id 2 protocol 6 offset (bytes) 0 flags [none] length: 412 10.1.1.1 > 10.1.2.2) ns3::TcpHeader (49153 > 2430 [ACK] Seq=1 Ack=1 Win=32768 ns3::TcpOptionTS(180;90) ns3::TcpOptionEnd(EOL)) Payload (size=360)
t 0.225931 /NodeList/0/$ns3::Ipv4L3Protocol/Tx(2) ns3::Ipv4Header (tos 0x0 DSCP Default ECN Not-ECT ttl 63 id 2 protocol 6 offset (bytes) 0 flags [none] length: 412 10.1.1.1 > 10.1.2.2) ns3::TcpHeader (49153 > 2430 [ACK] Seq=1 Ack=1 Win=32768 ns3::TcpOptionTS(180;90) ns3::TcpOptionEnd(EOL)) Payload (size=360)
r 0.270816 /NodeList/2/$ns3::Ipv4L3Protocol/Rx(1) ns3::Ipv4Header (tos 0x0 DSCP Default ECN Not-ECT ttl 63 id 1 protocol 6 offset (bytes) 0 flags [none] length: 52 10.1.1.1 > 10.1.2.2) ns3::TcpHeader (49153 > 2430 [ACK] Seq=1 Ack=1 Win=32768 ns3::TcpOptionTS(180;90) ns3::TcpOptionEnd(EOL))
r 0.272587 /NodeList/2/$ns3::Ipv4L3Protocol/Rx(1) ns3::Ipv4Header (tos 0x0 DSCP Default ECN Not-ECT ttl 63 id 2 protocol 6 offset (bytes) 0 flags [none] length: 412 10.1.1.1 > 10.1.2.2) ns3::TcpHeader (49153 > 2430 [ACK] Seq=1 Ack=1 Win=32768 ns3::TcpOptionTS(180;90) ns3::TcpOptionEnd(EOL)) Payload (size=360)
t 0.272587 /NodeList/2/$ns3::Ipv4L3Protocol/Tx(1) ns3::Ipv4Header (tos 0x0 DSCP Default ECN Not-ECT ttl 64 id 1 protocol 6 offset (bytes) 0 flags [none] length: 52 10.1.2.2 > 10.1.1.1) ns3::TcpHeader (2430 > 49153 [ACK] Seq=1 Ack=361 Win=32768 ns3::TcpOptionTS(272;180) ns3::TcpOptionEnd(EOL))
r 0.317803 /NodeList/0/$ns3::Ipv4L3Protocol/Rx(2) ns3::Ipv4Header (tos 0x0 DSCP Default ECN Not-ECT ttl 64 id 1 protocol 6 offset (bytes) 0 flags [none] length: 52 10.1.2.2 > 10.1.1.1) ns3::TcpHeader (2430 > 49153 [ACK] Seq=1 Ack=361 Win=32768 ns3::TcpOptionTS(272;180) ns3::TcpOptionEnd(EOL))
t 0.317803 /NodeList/0/$ns3::Ipv4L3Protocol/Tx(1) ns3::Ipv4Header (tos 0x0 DSCP Default ECN Not-ECT ttl 63 id 1 protocol 6 offset (bytes) 0 flags [none] length: 52 10.1.2.2 > 10.1.1.1) ns3::TcpHeader (2430 > 49153 [ACK] Seq=1 Ack=361 Win=32768 ns3::TcpOptionTS(272;180) ns3::TcpOptionEnd(EOL))
r 0.362846 /NodeList/1/$ns3::Ipv4L3Protocol/Rx(1) ns3::Ipv4Header (tos 0x0 DSCP Default ECN Not-ECT ttl 63 id 1 protocol 6 offset (bytes) 0 flags [none] length: 52 10.1.2.2 > 10.1.1.1) ns3::TcpHeader (2430 > 49153 [ACK] Seq=1 Ack=361 Win=32768 ns3::TcpOptionTS(272;180) ns3::TcpOptionEnd(EOL))
t 0.362846 /NodeList/1/$ns3::Ipv4L3Protocol/Tx(1) ns3::Ipv4Header (tos 0x0 DSCP Default ECN Not-ECT ttl 64 id 3 protocol 6 offset (bytes) 0 flags [none] length: 412 10.1.1.1 > 10.1.2.2) ns3::TcpHeader (49153 > 2430 [ACK] Seq=361 Ack=1 Win=32768 ns3::TcpOptionTS(362;272) ns3::TcpOptionEnd(EOL)) Payload (size=360)
t 0.362846 /NodeList/1/$ns3::Ipv4L3Protocol/Tx(1) ns3::Ipv4Header (tos 0x0 DSCP Default ECN Not-ECT ttl 64 id 4 protocol 6 offset (bytes) 0 flags [none] length: 412 10.1.1.1 > 10.1.2.2) ns3::TcpHeader (49153 > 2430 [ACK] Seq=721 Ack=1 Win=32768 ns3::TcpOptionTS(362;272) ns3::TcpOptionEnd(EOL)) Payload (size=360)
r 0.408178 /NodeList/0/$ns3::Ipv4L3Protocol/Rx(1) ns3::Ipv4Header (tos 0x0 DSCP Default ECN Not-ECT ttl 64 id 3 protocol 6 offset (bytes) 0 flags [none] length: 412 10.1.1.1 > 10.1.2.2) ns3::TcpHeader (49153 > 2430 [ACK] Seq=361 Ack=1 Win=32768 ns3::TcpOptionTS(362;272) ns3::TcpOptionEnd(EOL)) Payload (size=360)
t 0.408178 /NodeList/0/$ns3::Ipv4L3Protocol/Tx(2) ns3::Ipv4Header (tos 0x0 DSCP Default ECN Not-ECT ttl 63 id 3 protocol 6 offset (bytes) 0 flags [none] length: 412 10.1.1.1 > 10.1.2.2) ns3::TcpHeader (49153 > 2430 [ACK] Seq=361 Ack=1 Win=32768 ns3::TcpOptionTS(362;272) ns3::TcpOptionEnd(EOL)) Payload (size=360)
r 0.408509 /NodeList/0/$ns3::Ipv4L3Protocol/Rx(1) ns3::Ipv4Header (tos 0x0 DSCP Default ECN Not-ECT ttl 64 id 4 protocol 6 offset (bytes) 0 flags [none] length: 412 10.1.1.1 > 10.1.2.2) ns3::TcpHeader (49153 > 2430 [ACK] Seq=721 Ack=1 Win=32768 ns3::TcpOptionTS(362;272) ns3::TcpOptionEnd(EOL)) Payload (size=360)
t 0.408509 /NodeList/0/$ns3::Ipv4L3Protocol/Tx(2) ns3::Ipv4Header (tos 0x0 DSCP Default ECN Not-ECT ttl 63 id 4 protocol 6 offset (bytes) 0 flags [none] length: 412 10.1.1.1 > 10.1.2.2) ns3::TcpHeader (49153 > 2430 [ACK] Seq=721 Ack=1 Win=32768 ns3::TcpOptionTS(362;272) ns3::TcpOptionEnd(EOL)) Payload (size=360)
r 0.454834 /NodeList/2/$ns3::Ipv4L3Protocol/Rx(1) ns3::Ipv4Header (tos 0x0 DSCP Default ECN Not-ECT ttl 63 id 3 protocol 6 offset (bytes) 0 flags [none] length: 412 10.1.1.1 > 10.1.2.2) ns3::TcpHeader (49153 > 2430 [ACK] Seq=361 Ack=1 Win=32768 ns3::TcpOptionTS(362;272) ns3::TcpOptionEnd(EOL)) Payload (size=360)
r 0.45649 /NodeList/2/$ns3::Ipv4L3Protocol/Rx(1) ns3::Ipv4Header (tos 0x0 DSCP Default ECN Not-ECT ttl 63 id 4 protocol 6 offset (bytes) 0 flags [none] length: 412 10.1.1.1 > 10.1.2.2) ns3::TcpHeader (49153 > 2430 [ACK] Seq=721 Ack=1 Win=32768 ns3::TcpOptionTS(362;272) ns3::TcpOptionEnd(EOL)) Payload (size=360)
t 0.45649 /NodeList/2/$ns3::Ipv4L3Protocol/Tx(1) ns3::Ipv4Header (tos 0x0 DSCP Default ECN Not-ECT ttl 64 id 2 protocol 6 offset (bytes) 0 flags [none] length: 52 10.1.2.2 > 10.1.1.1) ns3::TcpHeader (2430 > 49153 [ACK] Seq=1 Ack=1081 Win=32768 ns3::TcpOptionTS(456;362) ns3::TcpOptionEnd(EOL))
r 0.501706 /NodeList/0/$ns3::Ipv4L3Protocol/Rx(2) ns3::Ipv4Header (tos 0x0 DSCP Default ECN Not-ECT ttl 64 id 2 protocol 6 offset (bytes) 0 flags [none] length: 52 10.1.2.2 > 10.1.1.1) ns3::TcpHeader (2430 > 49153 [ACK] Seq=1 Ack=1081 Win=32768 ns3::TcpOptionTS(456;362) ns3::TcpOptionEnd(EOL))
t 0.501706 /NodeList/0/$ns3::Ipv4L3Protocol/Tx(1) ns3::Ipv4Header (tos 0x0 DSCP Default ECN Not-ECT ttl 63 id 2 protocol 6 offset (bytes) 0 flags [none] length: 52 10.1.2.2 > 10.1.1.1) ns3::TcpHeader (2430 > 49153 [ACK] Seq=1 Ack=1081 Win=32768 ns3::TcpOptionTS(456;362) ns3::TcpOptionEnd(EOL))
r 0.546749 /NodeList/1/$ns3::Ipv4L3Protocol/Rx(1) ns3::Ipv4Header (tos 0x0 DSCP Default ECN Not-ECT ttl 63 id 2 protocol 6 offset (bytes) 0 flags [none] length: 52 10.1.2.2 > 10.1.1.1) ns3::TcpHeader (2430 > 49153 [ACK] Seq=1 Ack=1081 Win=32768 ns3::TcpOptionTS(456;362) ns3::TcpOptionEnd(EOL))
t 0.546749 /NodeList/1/$ns3::Ipv4L3Protocol/Tx(1) ns3::Ipv4Header (tos 0x0 DSCP Default ECN Not-ECT ttl 64 id 5 protocol 6 offset (bytes) 0 flags [none] length: 412 10.1.1.1 > 10.1.2.2) ns3::TcpHeader (49153 > 2430 [ACK] Seq=1081 Ack=1 Win=32768 ns3::TcpOptionTS(546;456) ns3::TcpOptionEnd(EOL)) Payload (size=360)
t 0.546749 /NodeList/1/$ns3::Ipv4L3Protocol/Tx(1) ns3::Ipv4Header (tos 0x0 DSCP Default ECN Not-ECT ttl 64 id 6 protocol 6 offset (bytes) 0 flags [none] length: 412 10.1.1.1 > 10.1.2.2) ns3::TcpHeader (49153 > 2430 [ACK] Seq=1441 Ack=1 Win=32768 ns3::TcpOptionTS(546;456) ns3::TcpOptionEnd(EOL)) Payload (size=360)
t 0.546749 /NodeList/1/$ns3::Ipv4L3Protocol/Tx(1) ns3::Ipv4Header (tos 0x0 DSCP Default ECN Not-ECT ttl 64 id 7 protocol 6 offset (bytes) 0 flags [none] length: 412 10.1.1.1 > 10.1.2.2) ns3::TcpHeader (49153 > 2430 [ACK] Seq=1801 Ack=1 Win=32768 ns3::TcpOptionTS(546;456) ns3::TcpOptionEnd(EOL)) Payload (size=360)
r 0.59208 /NodeList/0/$ns3::Ipv4L3Protocol/Rx(1) ns3::Ipv4Header (tos 0x0 DSCP Default ECN Not-ECT ttl 64 id 5 protocol 6 offset (bytes) 0 flags [none] length: 412 10.1.1.1 > 10.1.2.2) ns3::TcpHeader (49153 > 2430 [ACK] Seq=1081 Ack=1 Win=32768 ns3::TcpOptionTS(546;456) ns3::TcpOptionEnd(EOL)) Payload (size=360)
t 0.59208 /NodeList/0/$ns3::Ipv4L3Protocol/Tx(2) ns3::Ipv4Header (tos 0x0 DSCP Default ECN Not-ECT ttl 63 id 5 protocol 6 offset (bytes) 0 flags [none] length: 412 10.1.1.1 > 10.1.2.2) ns3::TcpHeader (49153 > 2430 [ACK] Seq=1081 Ack=1 Win=32768 ns3::TcpOptionTS(546;456) ns3::TcpOptionEnd(EOL)) Payload (size=360)
r 0.592411 /NodeList/0/$ns3::Ipv4L3Protocol/Rx(1) ns3::Ipv4Header (tos 0x0 DSCP Default ECN Not-ECT ttl 64 id 6 protocol 6 offset (bytes) 0 flags [none] length: 412 10.1.1.1 > 10.1.2.2) ns3::TcpHeader (49153 > 2430 [ACK] Seq=1441 Ack=1 Win=32768 ns3::TcpOptionTS(546;456) ns3::TcpOptionEnd(EOL)) Payload (size=360)
t 0.592411 /NodeList/0/$ns3::Ipv4L3Protocol/Tx(2) ns3::Ipv4Header (tos 0x0 DSCP Default ECN Not-ECT ttl 63 id 6 protocol 6 offset (bytes) 0 flags [none] length: 412 10.1.1.1 > 10.1.2.2) ns3::TcpHeader (49153 > 2430 [ACK] Seq=1441 Ack=1 Win=32768 ns3::TcpOptionTS(546;456) ns3::TcpOptionEnd(EOL)) Payload (size=360)
r 0.592742 /NodeList/0/$ns3::Ipv4L3Protocol/Rx(1) ns3::Ipv4Header (tos 0x0 DSCP Default ECN Not-ECT ttl 64 id 7 protocol 6 offset (bytes) 0 flags [none] length: 412 10.1.1.1 > 10.1.2.2) ns3::TcpHeader (49153 > 2430 [ACK] Seq=1801 Ack=1 Win=32768 ns3::TcpOptionTS(546;456) ns3::TcpOptionEnd(EOL)) Payload (size=360)
t 0.592742 /NodeList/0/$ns3::Ipv4L3Protocol/Tx(2) ns3::Ipv4Header (tos 0x0 DSCP Default ECN Not-ECT ttl 63 id 7 protocol 6 offset (bytes) 0 flags [none] length: 412 10.1.1.1 > 10.1.2.2) ns3::TcpHeader (49153 > 2430 [ACK] Seq=1801 Ack=1 Win=32768 ns3::TcpOptionTS(546;456) ns3::TcpOptionEnd(EOL)) Payload (size=360)
r 0.638736 /NodeList/2/$ns3::Ipv4L3Protocol/Rx(1) ns3::Ipv4Header (tos 0x0 DSCP Default ECN Not-ECT ttl 63 id 5 protocol 6 offset (bytes) 0 flags [none] length: 412 10.1.1.1 > 10.1.2.2) ns3::TcpHeader (49153 > 2430 [ACK] Seq=1081 Ack=1 Win=32768 ns3::TcpOptionTS(546;456) ns3::TcpOptionEnd(EOL)) Payload (size=360)
r 0.640392 /NodeList/2/$ns3::Ipv4L3Protocol/Rx(1) ns3::Ipv4Header (tos 0x0 DSCP Default ECN Not-ECT ttl 63 id 6 protocol 6 offset (bytes) 0 flags [none] length: 412 10.1.1.1 > 10.1.2.2) ns3::TcpHeader (49153 > 2430 [ACK] Seq=1441 Ack=1 Win=32768 ns3::TcpOptionTS(546;456) ns3::TcpOptionEnd(EOL)) Payload (size=360)
t 0.640392 /NodeList/2/$ns3::Ipv4L3Protocol/Tx(1) ns3::Ipv4Header (tos 0x0 DSCP Default ECN Not-ECT ttl 64 id 3 protocol 6 offset (bytes) 0 flags [none] length: 52 10.1.2.2 > 10.1.1.1) ns3::TcpHeader (2430 > 49153 [ACK] Seq=1 Ack=1801 Win=32768 ns3::TcpOptionTS(640;546) ns3::TcpOptionEnd(EOL))
r 0.642048 /NodeList/2/$ns3::Ipv4L3Protocol/Rx(1) ns3::Ipv4Header (tos 0x0 DSCP Default ECN Not-ECT ttl 63 id 7 protocol 6 offset (bytes) 0 flags [none] length: 412 10.1.1.1 > 10.1.2.2) ns3::TcpHeader (49153 > 2430 [ACK] Seq=1801 Ack=1 Win=32768 ns3::TcpOptionTS(546;456) ns3::TcpOptionEnd(EOL)) Payload (size=360)
r 0.685608 /NodeList/0/$ns3::Ipv4L3Protocol/Rx(2) ns3::Ipv4Header (tos 0x0 DSCP Default ECN Not-ECT ttl 64 id 3 protocol 6 offset (bytes) 0 flags [none] length: 52 10.1.2.2 > 10.1.1.1) ns3::TcpHeader (2430 > 49153 [ACK] Seq=1 Ack=1801 Win=32768 ns3::TcpOptionTS(640;546) ns3::TcpOptionEnd(EOL))
t 0.685608 /NodeList/0/$ns3::Ipv4L3Protocol/Tx(1) ns3::Ipv4Header (tos 0x0 DSCP Default ECN Not-ECT ttl 63 id 3 protocol 6 offset (bytes) 0 flags [none] length: 52 10.1.2.2 > 10.1.1.1) ns3::TcpHeader (2430 > 49153 [ACK] Seq=1 Ack=1801 Win=32768 ns3::TcpOptionTS(640;546) ns3::TcpOptionEnd(EOL))
r 0.730651 /NodeList/1/$ns3::Ipv4L3Protocol/Rx(1) ns3::Ipv4Header (tos 0x0 DSCP Default ECN Not-ECT ttl 63 id 3 protocol 6 offset (bytes) 0 flags [none] length: 52 10.1.2.2 > 10.1.1.1) ns3::TcpHeader (2430 > 49153 [ACK] Seq=1 Ack=1801 Win=32768 ns3::TcpOptionTS(640;546) ns3::TcpOptionEnd(EOL))
t 0.730651 /NodeList/1/$ns3::Ipv4L3Protocol/Tx(1) ns3::Ipv4Header (tos 0x0 DSCP Default ECN Not-ECT ttl 64 id 8 protocol 6 offset (bytes) 0 flags [none] length: 412 10.1.1.1 > 10.1.2.2) ns3::TcpHeader (49153 > 2430 [ACK] Seq=2161 Ack=1 Win=32768 ns3::TcpOptionTS(730;640) ns3::TcpOptionEnd(EOL)) Payload (size=360)
t 0.730651 /NodeList/1/$ns3::Ipv4L3Protocol/Tx(1) ns3::Ipv4Header (tos 0x0 DSCP Default ECN Not-ECT ttl 64 id 9 protocol 6 offset (bytes) 0 flags [none] length: 412 10.1.1.1 > 10.1.2.2) ns3::TcpHeader (49153 > 2430 [ACK] Seq=2521 Ack=1 Win=32768 ns3::TcpOptionTS(730;640) ns3::TcpOptionEnd(EOL)) Payload (size=360)
t 0.730651 /NodeList/1/$ns3::Ipv4L3Protocol/Tx(1) ns3::Ipv4Header (tos 0x0 DSCP Default ECN Not-ECT ttl 64 id 10 protocol 6 offset (bytes) 0 flags [none] length: 412 10.1.1.1 > 10.1.2.2) ns3::TcpHeader (49153 > 2430 [ACK] Seq=2881 Ack=1 Win=32768 ns3::TcpOptionTS(730;640) ns3::TcpOptionEnd(EOL)) Payload (size=360)
r 0.775982 /NodeList/0/$ns3::Ipv4L3Protocol/Rx(1) ns3::Ipv4Header (tos 0x0 DSCP Default ECN Not-ECT ttl 64 id 8 protocol 6 offset (bytes) 0 flags [none] length: 412 10.1.1.1 > 10.1.2.2) ns3::TcpHeader (49153 > 2430 [ACK] Seq=2161 Ack=1 Win=32768 ns3::TcpOptionTS(730;640) ns3::TcpOptionEnd(EOL)) Payload (size=360)
t 0.775982 /NodeList/0/$ns3::Ipv4L3Protocol/Tx(2) ns3::Ipv4Header (tos 0x0 DSCP Default ECN Not-ECT ttl 63 id 8 protocol 6 offset (bytes) 0 flags [none] length: 412 10.1.1.1 > 10.1.2.2) ns3::TcpHeader (49153 > 2430 [ACK] Seq=2161 Ack=1 Win=32768 ns3::TcpOptionTS(730;640) ns3::TcpOptionEnd(EOL)) Payload (size=360)
r 0.776314 /NodeList/0/$ns3::Ipv4L3Protocol/Rx(1) ns3::Ipv4Header (tos 0x0 DSCP Default ECN Not-ECT ttl 64 id 9 protocol 6 offset (bytes) 0 flags [none] length: 412 10.1.1.1 > 10.1.2.2) ns3::TcpHeader (49153 > 2430 [ACK] Seq=2521 Ack=1 Win=32768 ns3::TcpOptionTS(730;640) ns3::TcpOptionEnd(EOL)) Payload (size=360)
t 0.776314 /NodeList/0/$ns3::Ipv4L3Protocol/Tx(2) ns3::Ipv4Header (tos 0x0 DSCP Default ECN Not-ECT ttl 63 id 9 protocol 6 offset (bytes) 0 flags [none] length: 412 10.1.1.1 > 10.1.2.2) ns3::TcpHeader (49153 > 2430 [ACK] Seq=2521 Ack=1 Win=32768 ns3::TcpOptionTS(730;640) ns3::TcpOptionEnd(EOL)) Payload (size=360)
r 0.776645 /NodeList/0/$ns3::Ipv4L3Protocol/Rx(1) ns3::Ipv4Header (tos 0x0 DSCP Default ECN Not-ECT ttl 64 id 10 protocol 6 offset (bytes) 0 flags [none] length: 412 10.1.1.1 > 10.1.2.2) ns3::TcpHeader (49153 > 2430 [ACK] Seq=2881 Ack=1 Win=32768 ns3::TcpOptionTS(730;640) ns3::TcpOptionEnd(EOL)) Payload (size=360)
t 0.776645 /NodeList/0/$ns3::Ipv4L3Protocol/Tx(2) ns3::Ipv4Header (tos 0x0 DSCP Default ECN Not-ECT ttl 63 id 10 protocol 6 offset (bytes) 0 flags [none] length: 412 10.1.1.1 > 10.1.2.2) ns3::TcpHeader (49153 > 2430 [ACK] Seq=2881 Ack=1 Win=32768 ns3::TcpOptionTS(730;640) ns3::TcpOptionEnd(EOL)) Payload (size=360)
r 0.822638 /NodeList/2/$ns3::Ipv4L3Protocol/Rx(1) ns3::Ipv4Header (tos 0x0 DSCP Default ECN Not-ECT ttl 63 id 8 protocol 6 offset (bytes) 0 flags [none] length: 412 10.1.1.1 > 10.1.2.2) ns3::TcpHeader (49153 > 2430 [ACK] Seq=2161 Ack=1 Win=32768 ns3::TcpOptionTS(730;640) ns3::TcpOptionEnd(EOL)) Payload (size=360)
t 0.822638 /NodeList/2/$ns3::Ipv4L3Protocol/Tx(1) ns3::Ipv4Header (tos 0x0 DSCP Default ECN Not-ECT ttl 64 id 4 protocol 6 offset (bytes) 0 flags [none] length: 52 10.1.2.2 > 10.1.1.1) ns3::TcpHeader (2430 > 49153 [ACK] Seq=1 Ack=2521 Win=32768 ns3::TcpOptionTS(822;546) ns3::TcpOptionEnd(EOL))
r 0.824294 /NodeList/2/$ns3::Ipv4L3Protocol/Rx(1) ns3::Ipv4Header (tos 0x0 DSCP Default ECN Not-ECT ttl 63 id 9 protocol 6 offset (bytes) 0 flags [none] length: 412 10.1.1.1 > 10.1.2.2) ns3::TcpHeader (49153 > 2430 [ACK] Seq=2521 Ack=1 Win=32768 ns3::TcpOptionTS(730;640) ns3::TcpOptionEnd(EOL)) Payload (size=360)
r 0.82595 /NodeList/2/$ns3::Ipv4L3Protocol/Rx(1) ns3::Ipv4Header (tos 0x0 DSCP Default ECN Not-ECT ttl 63 id 10 protocol 6 offset (bytes) 0 flags [none] length: 412 10.1.1.1 > 10.1.2.2) ns3::TcpHeader (49153 > 2430 [ACK] Seq=2881 Ack=1 Win=32768 ns3::TcpOptionTS(730;640) ns3::TcpOptionEnd(EOL)) Payload (size=360)
t 0.82595 /NodeList/2/$ns3::Ipv4L3Protocol/Tx(1) ns3::Ipv4Header (tos 0x0 DSCP Default ECN Not-ECT ttl 64 id 5 protocol 6 offset (bytes) 0 flags [none] length: 52 10.1.2.2 > 10.1.1.1) ns3::TcpHeader (2430 > 49153 [ACK] Seq=1 Ack=3241 Win=32768 ns3::TcpOptionTS(825;730) ns3::TcpOptionEnd(EOL))
r 0.867854 /NodeList/0/$ns3::Ipv4L3Protocol/Rx(2) ns3::Ipv4Header (tos 0x0 DSCP Default ECN Not-ECT ttl 64 id 4 protocol 6 offset (bytes) 0 flags [none] length: 52 10.1.2.2 > 10.1.1.1) ns3::TcpHeader (2430 > 49153 [ACK] Seq=1 Ack=2521 Win=32768 ns3::TcpOptionTS(822;546) ns3::TcpOptionEnd(EOL))
t 0.867854 /NodeList/0/$ns3::Ipv4L3Protocol/Tx(1) ns3::Ipv4Header (tos 0x0 DSCP Default ECN Not-ECT ttl 63 id 4 protocol 6 offset (bytes) 0 flags [none] length: 52 10.1.2.2 > 10.1.1.1) ns3::TcpHeader (2430 > 49153 [ACK] Seq=1 Ack=2521 Win=32768 ns3::TcpOptionTS(822;546) ns3::TcpOptionEnd(EOL))
r 0.871166 /NodeList/0/$ns3::Ipv4L3Protocol/Rx(2) ns3::Ipv4Header (tos 0x0 DSCP Default ECN Not-ECT ttl 64 id 5 protocol 6 offset (bytes) 0 flags [none] length: 52 10.1.2.2 > 10.1.1.1) ns3::TcpHeader (2430 > 49153 [ACK] Seq=1 Ack=3241 Win=32768 ns3::TcpOptionTS(825;730) ns3::TcpOptionEnd(EOL))
t 0.871166 /NodeList/0/$ns3::Ipv4L3Protocol/Tx(1) ns3::Ipv4Header (tos 0x0 DSCP Default ECN Not-ECT ttl 63 id 5 protocol 6 offset (bytes) 0 flags [none] length: 52 10.1.2.2 > 10.1.1.1) ns3::TcpHeader (2430 > 49153 [ACK] Seq=1 Ack=3241 Win=32768 ns3::TcpOptionTS(825;730) ns3::TcpOptionEnd(EOL))
r 0.912898 /NodeList/1/$ns3::Ipv4L3Protocol/Rx(1) ns3::Ipv4Header (tos 0x0 DSCP Default ECN Not-ECT ttl 63 id 4 protocol 6 offset (bytes) 0 flags [none] length: 52 10.1.2.2 > 10.1.1.1) ns3::TcpHeader (2430 > 49153 [ACK] Seq=1 Ack=2521 Win=32768 ns3::TcpOptionTS(822;546) ns3::TcpOptionEnd(EOL))
t 0.912898 /NodeList/1/$ns3::Ipv4L3Protocol/Tx(1) ns3::Ipv4Header (tos 0x0 DSCP Default ECN Not-ECT ttl 64 id 11 protocol 6 offset (bytes) 0 flags [none] length: 412 10.1.1.1 > 10.1.2.2) ns3::TcpHeader (49153 > 2430 [ACK] Seq=3241 Ack=1 Win=32768 ns3::TcpOptionTS(912;822) ns3::TcpOptionEnd(EOL)) Payload (size=360)
t 0.912898 /NodeList/1/$ns3::Ipv4L3Protocol/Tx(1) ns3::Ipv4Header (tos 0x0 DSCP Default ECN Not-ECT ttl 64 id 12 protocol 6 offset (bytes) 0 flags [none] length: 412 10.1.1.1 > 10.1.2.2) ns3::TcpHeader (49153 > 2430 [ACK] Seq=3601 Ack=1 Win=32768 ns3::TcpOptionTS(912;822) ns3::TcpOptionEnd(EOL)) Payload (size=360)
t 0.912898 /NodeList/1/$ns3::Ipv4L3Protocol/Tx(1) ns3::Ipv4Header (tos 0x0 DSCP Default ECN Not-ECT ttl 64 id 13 protocol 6 offset (bytes) 0 flags [none] length: 412 10.1.1.1 > 10.1.2.2) ns3::TcpHeader (49153 > 2430 [ACK] Seq=3961 Ack=1 Win=32768 ns3::TcpOptionTS(912;822) ns3::TcpOptionEnd(EOL)) Payload (size=360)
r 0.91621 /NodeList/1/$ns3::Ipv4L3Protocol/Rx(1) ns3::Ipv4Header (tos 0x0 DSCP Default ECN Not-ECT ttl 63 id 5 protocol 6 offset (bytes) 0 flags [none] length: 52 10.1.2.2 > 10.1.1.1) ns3::TcpHeader (2430 > 49153 [ACK] Seq=1 Ack=3241 Win=32768 ns3::TcpOptionTS(825;730) ns3::TcpOptionEnd(EOL))
t 0.91621 /NodeList/1/$ns3::Ipv4L3Protocol/Tx(1) ns3::Ipv4Header (tos 0x0 DSCP Default ECN Not-ECT ttl 64 id 14 protocol 6 offset (bytes) 0 flags [none] length: 412 10.1.1.1 > 10.1.2.2) ns3::TcpHeader (49153 > 2430 [ACK] Seq=4321 Ack=1 Win=32768 ns3::TcpOptionTS(916;825) ns3::TcpOptionEnd(EOL)) Payload (size=360)
t 0.91621 /NodeList/1/$ns3::Ipv4L3Protocol/Tx(1) ns3::Ipv4Header (tos 0x0 DSCP Default ECN Not-ECT ttl 64 id 15 protocol 6 offset (bytes) 0 flags [none] length: 412 10.1.1.1 > 10.1.2.2) ns3::TcpHeader (49153 > 2430 [ACK] Seq=4681 Ack=1 Win=32768 ns3::TcpOptionTS(916;825) ns3::TcpOptionEnd(EOL)) Payload (size=360)
t 0.91621 /NodeList/1/$ns3::Ipv4L3Protocol/Tx(1) ns3::Ipv4Header (tos 0x0 DSCP Default ECN Not-ECT ttl 64 id 16 protocol 6 offset (bytes) 0 flags [none] length: 412 10.1.1.1 > 10.1.2.2) ns3::TcpHeader (49153 > 2430 [ACK] Seq=5041 Ack=1 Win=32768 ns3::TcpOptionTS(916;825) ns3::TcpOptionEnd(EOL)) Payload (size=360)
r 0.958229 /NodeList/0/$ns3::Ipv4L3Protocol/Rx(1) ns3::Ipv4Header (tos 0x0 DSCP Default ECN Not-ECT ttl 64 id 11 protocol 6 offset (bytes) 0 flags [none] length: 412 10.1.1.1 > 10.1.2.2) ns3::TcpHeader (49153 > 2430 [ACK] Seq=3241 Ack=1 Win=32768 ns3::TcpOptionTS(912;822) ns3::TcpOptionEnd(EOL)) Payload (size=360)
t 0.958229 /NodeList/0/$ns3::Ipv4L3Protocol/Tx(2) ns3::Ipv4Header (tos 0x0 DSCP Default ECN Not-ECT ttl 63 id 11 protocol 6 offset (bytes) 0 flags [none] length: 412 10.1.1.1 > 10.1.2.2) ns3::TcpHeader (49153 > 2430 [ACK] Seq=3241 Ack=1 Win=32768 ns3::TcpOptionTS(912;822) ns3::TcpOptionEnd(EOL)) Payload (size=360)
r 0.95856 /NodeList/0/$ns3::Ipv4L3Protocol/Rx(1) ns3::Ipv4Header (tos 0x0 DSCP Default ECN Not-ECT ttl 64 id 12 protocol 6 offset (bytes) 0 flags [none] length: 412 10.1.1.1 > 10.1.2.2) ns3::TcpHeader (49153 > 2430 [ACK] Seq=3601 Ack=1 Win=32768 ns3::TcpOptionTS(912;822) ns3::TcpOptionEnd(EOL)) Payload (size=360)
t 0.95856 /NodeList/0/$ns3::Ipv4L3Protocol/Tx(2) ns3::Ipv4Header (tos 0x0 DSCP Default ECN Not-ECT ttl 63 id 12 protocol 6 offset (bytes) 0 flags [none] length: 412 10.1.1.1 > 10.1.2.2) ns3::TcpHeader (49153 > 2430 [ACK] Seq=3601 Ack=1 Win=32768 ns3::TcpOptionTS(912;822) ns3::TcpOptionEnd(EOL)) Payload (size=360)
r 0.958891 /NodeList/0/$ns3::Ipv4L3Protocol/Rx(1) ns3::Ipv4Header (tos 0x0 DSCP Default ECN Not-ECT ttl 64 id 13 protocol 6 offset (bytes) 0 flags [none] length: 412 10.1.1.1 > 10.1.2.2) ns3::TcpHeader (49153 > 2430 [ACK] Seq=3961 Ack=1 Win=32768 ns3::TcpOptionTS(912;822) ns3::TcpOptionEnd(EOL)) Payload (size=360)
t 0.958891 /NodeList/0/$ns3::Ipv4L3Protocol/Tx(2) ns3::Ipv4Header (tos 0x0 DSCP Default ECN Not-ECT ttl 63 id 13 protocol 6 offset (bytes) 0 flags [none] length: 412 10.1.1.1 > 10.1.2.2) ns3::TcpHeader (49153 > 2430 [ACK] Seq=3961 Ack=1 Win=32768 ns3::TcpOptionTS(912;822) ns3::TcpOptionEnd(EOL)) Payload (size=360)
r 0.961541 /NodeList/0/$ns3::Ipv4L3Protocol/Rx(1) ns3::Ipv4Header (tos 0x0 DSCP Default ECN Not-ECT ttl 64 id 14 protocol 6 offset (bytes) 0 flags [none] length: 412 10.1.1.1 > 10.1.2.2) ns3::TcpHeader (49153 > 2430 [ACK] Seq=4321 Ack=1 Win=32768 ns3::TcpOptionTS(916;825) ns3::TcpOptionEnd(EOL)) Payload (size=360)
t 0.961541 /NodeList/0/$ns3::Ipv4L3Protocol/Tx(2) ns3::Ipv4Header (tos 0x0 DSCP Default ECN Not-ECT ttl 63 id 14 protocol 6 offset (bytes) 0 flags [none] length: 412 10.1.1.1 > 10.1.2.2) ns3::TcpHeader (49153 > 2430 [ACK] Seq=4321 Ack=1 Win=32768 ns3::TcpOptionTS(916;825) ns3::TcpOptionEnd(EOL)) Payload (size=360)
r 0.961872 /NodeList/0/$ns3::Ipv4L3Protocol/Rx(1) ns3::Ipv4Header (tos 0x0 DSCP Default ECN Not-ECT ttl 64 id 15 protocol 6 offset (bytes) 0 flags [none] length: 412 10.1.1.1 > 10.1.2.2) ns3::TcpHeader (49153 > 2430 [ACK] Seq=4681 Ack=1 Win=32768 ns3::TcpOptionTS(916;825) ns3::TcpOptionEnd(EOL)) Payload (size=360)
t 0.961872 /NodeList/0/$ns3::Ipv4L3Protocol/Tx(2) ns3::Ipv4Header (tos 0x0 DSCP Default ECN Not-ECT ttl 63 id 15 protocol 6 offset (bytes) 0 flags [none] length: 412 10.1.1.1 > 10.1.2.2) ns3::TcpHeader (49153 > 2430 [ACK] Seq=4681 Ack=1 Win=32768 ns3::TcpOptionTS(916;825) ns3::TcpOptionEnd(EOL)) Payload (size=360)
r 0.962203 /NodeList/0/$ns3::Ipv4L3Protocol/Rx(1) ns3::Ipv4Header (tos 0x0 DSCP Default ECN Not-ECT ttl 64 id 16 protocol 6 offset (bytes) 0 flags [none] length: 412 10.1.1.1 > 10.1.2.2) ns3::TcpHeader (49153 > 2430 [ACK] Seq=5041 Ack=1 Win=32768 ns3::TcpOptionTS(916;825) ns3::TcpOptionEnd(EOL)) Payload (size=360)
t 0.962203 /NodeList/0/$ns3::Ipv4L3Protocol/Tx(2) ns3::Ipv4Header (tos 0x0 DSCP Default ECN Not-ECT ttl 63 id 16 protocol 6 offset (bytes) 0 flags [none] length: 412 10.1.1.1 > 10.1.2.2) ns3::TcpHeader (49153 > 2430 [ACK] Seq=5041 Ack=1 Win=32768 ns3::TcpOptionTS(916;825) ns3::TcpOptionEnd(EOL)) Payload (size=360)
r 1.00488 /NodeList/2/$ns3::Ipv4L3Protocol/Rx(1) ns3::Ipv4Header (tos 0x0 DSCP Default ECN Not-ECT ttl 63 id 11 protocol 6 offset (bytes) 0 flags [none] length: 412 10.1.1.1 > 10.1.2.2) ns3::TcpHeader (49153 > 2430 [ACK] Seq=3241 Ack=1 Win=32768 ns3::TcpOptionTS(912;822) ns3::TcpOptionEnd(EOL)) Payload (size=360)
r 1.00654 /NodeList/2/$ns3::Ipv4L3Protocol/Rx(1) ns3::Ipv4Header (tos 0x0 DSCP Default ECN Not-ECT ttl 63 id 12 protocol 6 offset (bytes) 0 flags [none] length: 412 10.1.1.1 > 10.1.2.2) ns3::TcpHeader (49153 > 2430 [ACK] Seq=3601 Ack=1 Win=32768 ns3::TcpOptionTS(912;822) ns3::TcpOptionEnd(EOL)) Payload (size=360)
t 1.00654 /NodeList/2/$ns3::Ipv4L3Protocol/Tx(1) ns3::Ipv4Header (tos 0x0 DSCP Default ECN Not-ECT ttl 64 id 6 protocol 6 offset (bytes) 0 flags [none] length: 52 10.1.2.2 > 10.1.1.1) ns3::TcpHeader (2430 > 49153 [ACK] Seq=1 Ack=3961 Win=32768 ns3::TcpOptionTS(1006;912) ns3::TcpOptionEnd(EOL))
r 1.0082 /NodeList/2/$ns3::Ipv4L3Protocol/Rx(1) ns3::Ipv4Header (tos 0x0 DSCP Default ECN Not-ECT ttl 63 id 13 protocol 6 offset (bytes) 0 flags [none] length: 412 10.1.1.1 > 10.1.2.2) ns3::TcpHeader (49153 > 2430 [ACK] Seq=3961 Ack=1 Win=32768 ns3::TcpOptionTS(912;822) ns3::TcpOptionEnd(EOL)) Payload (size=360)
r 1.00985 /NodeList/2/$ns3::Ipv4L3Protocol/Rx(1) ns3::Ipv4Header (tos 0x0 DSCP Default ECN Not-ECT ttl 63 id 14 protocol 6 offset (bytes) 0 flags [none] length: 412 10.1.1.1 > 10.1.2.2) ns3::TcpHeader (49153 > 2430 [ACK] Seq=4321 Ack=1 Win=32768 ns3::TcpOptionTS(916;825) ns3::TcpOptionEnd(EOL)) Payload (size=360)
t 1.00985 /NodeList/2/$ns3::Ipv4L3Protocol/Tx(1) ns3::Ipv4Header (tos 0x0 DSCP Default ECN Not-ECT ttl 64 id 7 protocol 6 offset (bytes) 0 flags [none] length: 52 10.1.2.2 > 10.1.1.1) ns3::TcpHeader (2430 > 49153 [ACK] Seq=1 Ack=4681 Win=32768 ns3::TcpOptionTS(1009;912) ns3::TcpOptionEnd(EOL))
r 1.01151 /NodeList/2/$ns3::Ipv4L3Protocol/Rx(1) ns3::Ipv4Header (tos 0x0 DSCP Default ECN Not-ECT ttl 63 id 15 protocol 6 offset (bytes) 0 flags [none] length: 412 10.1.1.1 > 10.1.2.2) ns3::TcpHeader (49153 > 2430 [ACK] Seq=4681 Ack=1 Win=32768 ns3::TcpOptionTS(916;825) ns3::TcpOptionEnd(EOL)) Payload (size=360)
r 1.01316 /NodeList/2/$ns3::Ipv4L3Protocol/Rx(1) ns3::Ipv4Header (tos 0x0 DSCP Default ECN Not-ECT ttl 63 id 16 protocol 6 offset (bytes) 0 flags [none] length: 412 10.1.1.1 > 10.1.2.2) ns3::TcpHeader (49153 > 2430 [ACK] Seq=5041 Ack=1 Win=32768 ns3::TcpOptionTS(916;825) ns3::TcpOptionEnd(EOL)) Payload (size=360)
t 1.01316 /NodeList/2/$ns3::Ipv4L3Protocol/Tx(1) ns3::Ipv4Header (tos 0x0 DSCP Default ECN Not-ECT ttl 64 id 8 protocol 6 offset (bytes) 0 flags [none] length: 52 10.1.2.2 > 10.1.1.1) ns3::TcpHeader (2430 > 49153 [ACK] Seq=1 Ack=5401 Win=32768 ns3::TcpOptionTS(1013;916) ns3::TcpOptionEnd(EOL))
r 1.05176 /NodeList/0/$ns3::Ipv4L3Protocol/Rx(2) ns3::Ipv4Header (tos 0x0 DSCP Default ECN Not-ECT ttl 64 id 6 protocol 6 offset (bytes) 0 flags [none] length: 52 10.1.2.2 > 10.1.1.1) ns3::TcpHeader (2430 > 49153 [ACK] Seq=1 Ack=3961 Win=32768 ns3::TcpOptionTS(1006;912) ns3::TcpOptionEnd(EOL))