t 0 /NodeList/1/$ns3::Ipv4L3Protocol/Tx(1) ns3::Ipv4Header (tos 0x0 DSCP Default ECN Not-ECT ttl 64 id 0 protocol 6 offset (bytes) 0 flags [none] length: 56 10.1.1.1 > 10.1.2.2) ns3::TcpHeader (49153 > 2430 [SYN] Seq=0 Ack=0 Win=65535 ns3::TcpOptionTS(0;0) ns3::TcpOptionWinScale(2) ns3::TcpOptionSackPermitted([sack_perm]) ns3::TcpOptionEnd(EOL))
r 0.0450464 /NodeList/0/$ns3::Ipv4L3Protocol/Rx(1) ns3::Ipv4Header (tos 0x0 DSCP Default ECN Not-ECT ttl 64 id 0 protocol 6 offset (bytes) 0 flags [none] length: 56 10.1.1.1 > 10.1.2.2) ns3::TcpHeader (49153 > 2430 [SYN] Seq=0 Ack=0 Win=65535 ns3::TcpOptionTS(0;0) ns3::TcpOptionWinScale(2) ns3::TcpOptionSackPermitted([sack_perm]) ns3::TcpOptionEnd(EOL))
t 0.0450464 /NodeList/0/$ns3::Ipv4L3Protocol/Tx(2) ns3::Ipv4Header (tos 0x0 DSCP Default ECN Not-ECT ttl 63 id 0 protocol 6 offset (bytes) 0 flags [none] length: 56 10.1.1.1 > 10.1.2.2) ns3::TcpHeader (49153 > 2430 [SYN] Seq=0 Ack=0 Win=65535 ns3::TcpOptionTS(0;0) ns3::TcpOptionWinScale(2) ns3::TcpOptionSackPermitted([sack_perm]) ns3::TcpOptionEnd(EOL))
r 0.0452884 /NodeList/2/$ns3::Ipv4L3Protocol/Rx(1) ns3::Ipv4Header (tos 0x0 DSCP Default ECN Not-ECT ttl 63 id 0 protocol 6 offset (bytes) 0 flags [none] length: 56 10.1.1.1 > 10.1.2.2) ns3::TcpHeader (49153 > 2430 [SYN] Seq=0 Ack=0 Win=65535 ns3::TcpOptionTS(0;0) ns3::TcpOptionWinScale(2) ns3::TcpOptionSackPermitted([sack_perm]) ns3::TcpOptionEnd(EOL))
t 0.0452884 /NodeList/2/$ns3::Ipv4L3Protocol/Tx(1) ns3::Ipv4Header (tos 0x0 DSCP Default ECN Not-ECT ttl 64 id 0 protocol 6 offset (bytes) 0 flags [none] length: 56 10.1.2.2 > 10.1.1.1) ns3::TcpHeader (2430 > 49153 [SYN|ACK] Seq=0 Ack=1 Win=65535 ns3::TcpOptionTS(45;0) ns3::TcpOptionWinScale(2) ns3::TcpOptionSackPermitted([sack_perm]) ns3::TcpOptionEnd(EOL))
r 0.0455304 /NodeList/0/$ns3::Ipv4L3Protocol/Rx(2) ns3::Ipv4Header (tos 0x0 DSCP Default ECN Not-ECT ttl 64 id 0 protocol 6 offset (bytes) 0 flags [none] length: 56 10.1.2.2 > 10.1.1.1) ns3::TcpHeader (2430 > 49153 [SYN|ACK] Seq=0 Ack=1 Win=65535 ns3::TcpOptionTS(45;0) ns3::TcpOptionWinScale(2) ns3::TcpOptionSackPermitted([sack_perm]) ns3::TcpOptionEnd(EOL))
t 0.0455304 /NodeList/0/$ns3::Ipv4L3Protocol/Tx(1) ns3::Ipv4Header (tos 0x0 DSCP Default ECN Not-ECT ttl 63 id 0 protocol 6 offset (bytes) 0 flags [none] length: 56 10.1.2.2 > 10.1.1.1) ns3::TcpHeader (2430 > 49153 [SYN|ACK] Seq=0 Ack=1 Win=65535 ns3::TcpOptionTS(45;0) ns3::TcpOptionWinScale(2) ns3::TcpOptionSackPermitted([sack_perm]) ns3::TcpOptionEnd(EOL))
r 0.0905768 /NodeList/1/$ns3::Ipv4L3Protocol/Rx(1) ns3::Ipv4Header (tos 0x0 DSCP Default ECN Not-ECT ttl 63 id 0 protocol 6 offset (bytes) 0 flags [none] length: 56 10.1.2.2 > 10.1.1.1) ns3::TcpHeader (2430 > 49153 [SYN|ACK] Seq=0 Ack=1 Win=65535 ns3::TcpOptionTS(45;0) ns3::TcpOptionWinScale(2) ns3::TcpOptionSackPermitted([sack_perm]) ns3::TcpOptionEnd(EOL))
t 0.0905768 /NodeList/1/$ns3::Ipv4L3Protocol/Tx(1) ns3::Ipv4Header (tos 0x0 DSCP Default ECN Not-ECT ttl 64 id 1 protocol 6 offset (bytes) 0 flags [none] length: 52 10.1.1.1 > 10.1.2.2) ns3::TcpHeader (49153 > 2430 [ACK] Seq=1 Ack=1 Win=32768 ns3::TcpOptionTS(90;45) ns3::TcpOptionEnd(EOL))
t 0.0905768 /NodeList/1/$ns3::Ipv4L3Protocol/Tx(1) ns3::Ipv4Header (tos 0x0 DSCP Default ECN Not-ECT ttl 64 id 2 protocol 6 offset (bytes) 0 flags [none] length: 412 10.1.1.1 > 10.1.2.2) ns3::TcpHeader (49153 > 2430 [ACK] Seq=1 Ack=1 Win=32768 ns3::TcpOptionTS(90;45) ns3::TcpOptionEnd(EOL)) Payload (size=360)
r 0.13562 /NodeList/0/$ns3::Ipv4L3Protocol/Rx(1) ns3::Ipv4Header (tos 0x0 DSCP Default ECN Not-ECT ttl 64 id 1 protocol 6 offset (bytes) 0 flags [none] length: 52 10.1.1.1 > 10.1.2.2) ns3::TcpHeader (49153 > 2430 [ACK] Seq=1 Ack=1 Win=32768 ns3::TcpOptionTS(90;45) ns3::TcpOptionEnd(EOL))
t 0.13562 /NodeList/0/$ns3::Ipv4L3Protocol/Tx(2) ns3::Ipv4Header (tos 0x0 DSCP Default ECN Not-ECT ttl 63 id 1 protocol 6 offset (bytes) 0 flags [none] length: 52 10.1.1.1 > 10.1.2.2) ns3::TcpHeader (49153 > 2430 [ACK] Seq=1 Ack=1 Win=32768 ns3::TcpOptionTS(90;45) ns3::TcpOptionEnd(EOL))
r 0.135846 /NodeList/2/$ns3::Ipv4L3Protocol/Rx(1) ns3::Ipv4Header (tos 0x0 DSCP Default ECN Not-ECT ttl 63 id 1 protocol 6 offset (bytes) 0 flags [none] length: 52 10.1.1.1 > 10.1.2.2) ns3::TcpHeader (49153 > 2430 [ACK] Seq=1 Ack=1 Win=32768 ns3::TcpOptionTS(90;45) ns3::TcpOptionEnd(EOL))
r 0.135951 /NodeList/0/$ns3::Ipv4L3Protocol/Rx(1) ns3::Ipv4Header (tos 0x0 DSCP Default ECN Not-ECT ttl 64 id 2 protocol 6 offset (bytes) 0 flags [none] length: 412 10.1.1.1 > 10.1.2.2) ns3::TcpHeader (49153 > 2430 [ACK] Seq=1 Ack=1 Win=32768 ns3::TcpOptionTS(90;45) ns3::TcpOptionEnd(EOL)) Payload (size=360)
t 0.135951 /NodeList/0/$ns3::Ipv4L3Protocol/Tx(2) ns3::Ipv4Header (tos 0x0 DSCP Default ECN Not-ECT ttl 63 id 2 protocol 6 offset (bytes) 0 flags [none] length: 412 10.1.1.1 > 10.1.2.2) ns3::TcpHeader (49153 > 2430 [ACK] Seq=1 Ack=1 Win=32768 ns3::TcpOptionTS(90;45) ns3::TcpOptionEnd(EOL)) Payload (size=360)
r 0.137617 /NodeList/2/$ns3::Ipv4L3Protocol/Rx(1) ns3::Ipv4Header (tos 0x0 DSCP Default ECN Not-ECT ttl 63 id 2 protocol 6 offset (bytes) 0 flags [none] length: 412 10.1.1.1 > 10.1.2.2) ns3::TcpHeader (49153 > 2430 [ACK] Seq=1 Ack=1 Win=32768 ns3::TcpOptionTS(90;45) ns3::TcpOptionEnd(EOL)) Payload (size=360)
t 0.137617 /NodeList/2/$ns3::Ipv4L3Protocol/Tx(1) ns3::Ipv4Header (tos 0x0 DSCP Default ECN Not-ECT ttl 64 id 1 protocol 6 offset (bytes) 0 flags [none] length: 52 10.1.2.2 > 10.1.1.1) ns3::TcpHeader (2430 > 49153 [ACK] Seq=1 Ack=361 Win=32768 ns3::TcpOptionTS(137;90) ns3::TcpOptionEnd(EOL))
r 0.137843 /NodeList/0/$ns3::Ipv4L3Protocol/Rx(2) ns3::Ipv4Header (tos 0x0 DSCP Default ECN Not-ECT ttl 64 id 1 protocol 6 offset (bytes) 0 flags [none] length: 52 10.1.2.2 > 10.1.1.1) ns3::TcpHeader (2430 > 49153 [ACK] Seq=1 Ack=361 Win=32768 ns3::TcpOptionTS(137;90) ns3::TcpOptionEnd(EOL))
t 0.137843 /NodeList/0/$ns3::Ipv4L3Protocol/Tx(1) ns3::Ipv4Header (tos 0x0 DSCP Default ECN Not-ECT ttl 63 id 1 protocol 6 offset (bytes) 0 flags [none] length: 52 10.1.2.2 > 10.1.1.1) ns3::TcpHeader (2430 > 49153 [ACK] Seq=1 Ack=361 Win=32768 ns3::TcpOptionTS(137;90) ns3::TcpOptionEnd(EOL))
r 0.182886 /NodeList/1/$ns3::Ipv4L3Protocol/Rx(1) ns3::Ipv4Header (tos 0x0 DSCP Default ECN Not-ECT ttl 63 id 1 protocol 6 offset (bytes) 0 flags [none] length: 52 10.1.2.2 > 10.1.1.1) ns3::TcpHeader (2430 > 49153 [ACK] Seq=1 Ack=361 Win=32768 ns3::TcpOptionTS(137;90) ns3::TcpOptionEnd(EOL))
t 0.182886 /NodeList/1/$ns3::Ipv4L3Protocol/Tx(1) ns3::Ipv4Header (tos 0x0 DSCP Default ECN Not-ECT ttl 64 id 3 protocol 6 offset (bytes) 0 flags [none] length: 412 10.1.1.1 > 10.1.2.2) ns3::TcpHeader (49153 > 2430 [ACK] Seq=361 Ack=1 Win=32768 ns3::TcpOptionTS(182;137) ns3::TcpOptionEnd(EOL)) Payload (size=360)
t 0.182886 /NodeList/1/$ns3::Ipv4L3Protocol/Tx(1) ns3::Ipv4Header (tos 0x0 DSCP Default ECN Not-ECT ttl 64 id 4 protocol 6 offset (bytes) 0 flags [none] length: 412 10.1.1.1 > 10.1.2.2) ns3::TcpHeader (49153 > 2430 [ACK] Seq=721 Ack=1 Win=32768 ns3::TcpOptionTS(182;137) ns3::TcpOptionEnd(EOL)) Payload (size=360)
r 0.228218 /NodeList/0/$ns3::Ipv4L3Protocol/Rx(1) ns3::Ipv4Header (tos 0x0 DSCP Default ECN Not-ECT ttl 64 id 3 protocol 6 offset (bytes) 0 flags [none] length: 412 10.1.1.1 > 10.1.2.2) ns3::TcpHeader (49153 > 2430 [ACK] Seq=361 Ack=1 Win=32768 ns3::TcpOptionTS(182;137) ns3::TcpOptionEnd(EOL)) Payload (size=360)
t 0.228218 /NodeList/0/$ns3::Ipv4L3Protocol/Tx(2) ns3::Ipv4Header (tos 0x0 DSCP Default ECN Not-ECT ttl 63 id 3 protocol 6 offset (bytes) 0 flags [none] length: 412 10.1.1.1 > 10.1.2.2) ns3::TcpHeader (49153 > 2430 [ACK] Seq=361 Ack=1 Win=32768 ns3::TcpOptionTS(182;137) ns3::TcpOptionEnd(EOL)) Payload (size=360)
r 0.228549 /NodeList/0/$ns3::Ipv4L3Protocol/Rx(1) ns3::Ipv4Header (tos 0x0 DSCP Default ECN Not-ECT ttl 64 id 4 protocol 6 offset (bytes) 0 flags [none] length: 412 10.1.1.1 > 10.1.2.2) ns3::TcpHeader (49153 > 2430 [ACK] Seq=721 Ack=1 Win=32768 ns3::TcpOptionTS(182;137) ns3::TcpOptionEnd(EOL)) Payload (size=360)
t 0.228549 /NodeList/0/$ns3::Ipv4L3Protocol/Tx(2) ns3::Ipv4Header (tos 0x0 DSCP Default ECN Not-ECT ttl 63 id 4 protocol 6 offset (bytes) 0 flags [none] length: 412 10.1.1.1 > 10.1.2.2) ns3::TcpHeader (49153 > 2430 [ACK] Seq=721 Ack=1 Win=32768 ns3::TcpOptionTS(182;137) ns3::TcpOptionEnd(EOL)) Payload (size=360)
r 0.229884 /NodeList/2/$ns3::Ipv4L3Protocol/Rx(1) ns3::Ipv4Header (tos 0x0 DSCP Default ECN Not-ECT ttl 63 id 3 protocol 6 offset (bytes) 0 flags [none] length: 412 10.1.1.1 > 10.1.2.2) ns3::TcpHeader (49153 > 2430 [ACK] Seq=361 Ack=1 Win=32768 ns3::TcpOptionTS(182;137) ns3::TcpOptionEnd(EOL)) Payload (size=360)
r 0.23154 /NodeList/2/$ns3::Ipv4L3Protocol/Rx(1) ns3::Ipv4Header (tos 0x0 DSCP Default ECN Not-ECT ttl 63 id 4 protocol 6 offset (bytes) 0 flags [none] length: 412 10.1.1.1 > 10.1.2.2) ns3::TcpHeader (49153 > 2430 [ACK] Seq=721 Ack=1 Win=32768 ns3::TcpOptionTS(182;137) ns3::TcpOptionEnd(EOL)) Payload (size=360)
t 0.23154 /NodeList/2/$ns3::Ipv4L3Protocol/Tx(1) ns3::Ipv4Header (tos 0x0 DSCP Default ECN Not-ECT ttl 64 id 2 protocol 6 offset (bytes) 0 flags [none] length: 52 10.1.2.2 > 10.1.1.1) ns3::TcpHeader (2430 > 49153 [ACK] Seq=1 Ack=1081 Win=32768 ns3::TcpOptionTS(231;182) ns3::TcpOptionEnd(EOL))
r 0.231766 /NodeList/0/$ns3::Ipv4L3Protocol/Rx(2) ns3::Ipv4Header (tos 0x0 DSCP Default ECN Not-ECT ttl 64 id 2 protocol 6 offset (bytes) 0 flags [none] length: 52 10.1.2.2 > 10.1.1.1) ns3::TcpHeader (2430 > 49153 [ACK] Seq=1 Ack=1081 Win=32768 ns3::TcpOptionTS(231;182) ns3::TcpOptionEnd(EOL))
t 0.231766 /NodeList/0/$ns3::Ipv4L3Protocol/Tx(1) ns3::Ipv4Header (tos 0x0 DSCP Default ECN Not-ECT ttl 63 id 2 protocol 6 offset (bytes) 0 flags [none] length: 52 10.1.2.2 > 10.1.1.1) ns3::TcpHeader (2430 > 49153 [ACK] Seq=1 Ack=1081 Win=32768 ns3::TcpOptionTS(231;182) ns3::TcpOptionEnd(EOL))
r 0.276809 /NodeList/1/$ns3::Ipv4L3Protocol/Rx(1) ns3::Ipv4Header (tos 0x0 DSCP Default ECN Not-ECT ttl 63 id 2 protocol 6 offset (bytes) 0 flags [none] length: 52 10.1.2.2 > 10.1.1.1) ns3::TcpHeader (2430 > 49153 [ACK] Seq=1 Ack=1081 Win=32768 ns3::TcpOptionTS(231;182) ns3::TcpOptionEnd(EOL))
t 0.276809 /NodeList/1/$ns3::Ipv4L3Protocol/Tx(1) ns3::Ipv4Header (tos 0x0 DSCP Default ECN Not-ECT ttl 64 id 5 protocol 6 offset (bytes) 0 flags [none] length: 412 10.1.1.1 > 10.1.2.2) ns3::TcpHeader (49153 > 2430 [ACK] Seq=1081 Ack=1 Win=32768 ns3::TcpOptionTS(276;231) ns3::TcpOptionEnd(EOL)) Payload (size=360)
t 0.276809 /NodeList/1/$ns3::Ipv4L3Protocol/Tx(1) ns3::Ipv4Header (tos 0x0 DSCP Default ECN Not-ECT ttl 64 id 6 protocol 6 offset (bytes) 0 flags [none] length: 412 10.1.1.1 > 10.1.2.2) ns3::TcpHeader (49153 > 2430 [ACK] Seq=1441 Ack=1 Win=32768 ns3::TcpOptionTS(276;231) ns3::TcpOptionEnd(EOL)) Payload (size=360)
t 0.276809 /NodeList/1/$ns3::Ipv4L3Protocol/Tx(1) ns3::Ipv4Header (tos 0x0 DSCP Default ECN Not-ECT ttl 64 id 7 protocol 6 offset (bytes) 0 flags [none] length: 412 10.1.1.1 > 10.1.2.2) ns3::TcpHeader (49153 > 2430 [ACK] Seq=1801 Ack=1 Win=32768 ns3::TcpOptionTS(276;231) ns3::TcpOptionEnd(EOL)) Payload (size=360)
r 0.32214 /NodeList/0/$ns3::Ipv4L3Protocol/Rx(1) ns3::Ipv4Header (tos 0x0 DSCP Default ECN Not-ECT ttl 64 id 5 protocol 6 offset (bytes) 0 flags [none] length: 412 10.1.1.1 > 10.1.2.2) ns3::TcpHeader (49153 > 2430 [ACK] Seq=1081 Ack=1 Win=32768 ns3::TcpOptionTS(276;231) ns3::TcpOptionEnd(EOL)) Payload (size=360)
t 0.32214 /NodeList/0/$ns3::Ipv4L3Protocol/Tx(2) ns3::Ipv4Header (tos 0x0 DSCP Default ECN Not-ECT ttl 63 id 5 protocol 6 offset (bytes) 0 flags [none] length: 412 10.1.1.1 > 10.1.2.2) ns3::TcpHeader (49153 > 2430 [ACK] Seq=1081 Ack=1 Win=32768 ns3::TcpOptionTS(276;231) ns3::TcpOptionEnd(EOL)) Payload (size=360)
r 0.322471 /NodeList/0/$ns3::Ipv4L3Protocol/Rx(1) ns3::Ipv4Header (tos 0x0 DSCP Default ECN Not-ECT ttl 64 id 6 protocol 6 offset (bytes) 0 flags [none] length: 412 10.1.1.1 > 10.1.2.2) ns3::TcpHeader (49153 > 2430 [ACK] Seq=1441 Ack=1 Win=32768 ns3::TcpOptionTS(276;231) ns3::TcpOptionEnd(EOL)) Payload (size=360)
t 0.322471 /NodeList/0/$ns3::Ipv4L3Protocol/Tx(2) ns3::Ipv4Header (tos 0x0 DSCP Default ECN Not-ECT ttl 63 id 6 protocol 6 offset (bytes) 0 flags [none] length: 412 10.1.1.1 > 10.1.2.2) ns3::TcpHeader (49153 > 2430 [ACK] Seq=1441 Ack=1 Win=32768 ns3::TcpOptionTS(276;231) ns3::TcpOptionEnd(EOL)) Payload (size=360)
r 0.322802 /NodeList/0/$ns3::Ipv4L3Protocol/Rx(1) ns3::Ipv4Header (tos 0x0 DSCP Default ECN Not-ECT ttl 64 id 7 protocol 6 offset (bytes) 0 flags [none] length: 412 10.1.1.1 > 10.1.2.2) ns3::TcpHeader (49153 > 2430 [ACK] Seq=1801 Ack=1 Win=32768 ns3::TcpOptionTS(276;231) ns3::TcpOptionEnd(EOL)) Payload (size=360)
t 0.322802 /NodeList/0/$ns3::Ipv4L3Protocol/Tx(2) ns3::Ipv4Header (tos 0x0 DSCP Default ECN Not-ECT ttl 63 id 7 protocol 6 offset (bytes) 0 flags [none] length: 412 10.1.1.1 > 10.1.2.2) ns3::TcpHeader (49153 > 2430 [ACK] Seq=1801 Ack=1 Win=32768 ns3::TcpOptionTS(276;231) ns3::TcpOptionEnd(EOL)) Payload (size=360)
r 0.323806 /NodeList/2/$ns3::Ipv4L3Protocol/Rx(1) ns3::Ipv4Header (tos 0x0 DSCP Default ECN Not-ECT ttl 63 id 5 protocol 6 offset (bytes) 0 flags [none] length: 412 10.1.1.1 > 10.1.2.2) ns3::TcpHeader (49153 > 2430 [ACK] Seq=1081 Ack=1 Win=32768 ns3::TcpOptionTS(276;231) ns3::TcpOptionEnd(EOL)) Payload (size=360)
r 0.325462 /NodeList/2/$ns3::Ipv4L3Protocol/Rx(1) ns3::Ipv4Header (tos 0x0 DSCP Default ECN Not-ECT ttl 63 id 6 protocol 6 offset (bytes) 0 flags [none] length: 412 10.1.1.1 > 10.1.2.2) ns3::TcpHeader (49153 > 2430 [ACK] Seq=1441 Ack=1 Win=32768 ns3::TcpOptionTS(276;231) ns3::TcpOptionEnd(EOL)) Payload (size=360)
t 0.325462 /NodeList/2/$ns3::Ipv4L3Protocol/Tx(1) ns3::Ipv4Header (tos 0x0 DSCP Default ECN Not-ECT ttl 64 id 3 protocol 6 offset (bytes) 0 flags [none] length: 52 10.1.2.2 > 10.1.1.1) ns3::TcpHeader (2430 > 49153 [ACK] Seq=1 Ack=1801 Win=32768 ns3::TcpOptionTS(325;276) ns3::TcpOptionEnd(EOL))
r 0.325688 /NodeList/0/$ns3::Ipv4L3Protocol/Rx(2) ns3::Ipv4Header (tos 0x0 DSCP Default ECN Not-ECT ttl 64 id 3 protocol 6 offset (bytes) 0 flags [none] length: 52 10.1.2.2 > 10.1.1.1) ns3::TcpHeader (2430 > 49153 [ACK] Seq=1 Ack=1801 Win=32768 ns3::TcpOptionTS(325;276) ns3::TcpOptionEnd(EOL))
t 0.325688 /NodeList/0/$ns3::Ipv4L3Protocol/Tx(1) ns3::Ipv4Header (tos 0x0 DSCP Default ECN Not-ECT ttl 63 id 3 protocol 6 offset (bytes) 0 flags [none] length: 52 10.1.2.2 > 10.1.1.1) ns3::TcpHeader (2430 > 49153 [ACK] Seq=1 Ack=1801 Win=32768 ns3::TcpOptionTS(325;276) ns3::TcpOptionEnd(EOL))
r 0.327118 /NodeList/2/$ns3::Ipv4L3Protocol/Rx(1) ns3::Ipv4Header (tos 0x0 DSCP Default ECN Not-ECT ttl 63 id 7 protocol 6 offset (bytes) 0 flags [none] length: 412 10.1.1.1 > 10.1.2.2) ns3::TcpHeader (49153 > 2430 [ACK] Seq=1801 Ack=1 Win=32768 ns3::TcpOptionTS(276;231) ns3::TcpOptionEnd(EOL)) Payload (size=360)
r 0.370731 /NodeList/1/$ns3::Ipv4L3Protocol/Rx(1) ns3::Ipv4Header (tos 0x0 DSCP Default ECN Not-ECT ttl 63 id 3 protocol 6 offset (bytes) 0 flags [none] length: 52 10.1.2.2 > 10.1.1.1) ns3::TcpHeader (2430 > 49153 [ACK] Seq=1 Ack=1801 Win=32768 ns3::TcpOptionTS(325;276) ns3::TcpOptionEnd(EOL))
t 0.370731 /NodeList/1/$ns3::Ipv4L3Protocol/Tx(1) ns3::Ipv4Header (tos 0x0 DSCP Default ECN Not-ECT ttl 64 id 8 protocol 6 offset (bytes) 0 flags [none] length: 412 10.1.1.1 > 10.1.2.2) ns3::TcpHeader (49153 > 2430 [ACK] Seq=2161 Ack=1 Win=32768 ns3::TcpOptionTS(370;325) ns3::TcpOptionEnd(EOL)) Payload (size=360)
t 0.370731 /NodeList/1/$ns3::Ipv4L3Protocol/Tx(1) ns3::Ipv4Header (tos 0x0 DSCP Default ECN Not-ECT ttl 64 id 9 protocol 6 offset (bytes) 0 flags [none] length: 412 10.1.1.1 > 10.1.2.2) ns3::TcpHeader (49153 > 2430 [ACK] Seq=2521 Ack=1 Win=32768 ns3::TcpOptionTS(370;325) ns3::TcpOptionEnd(EOL)) Payload (size=360)
t 0.370731 /NodeList/1/$ns3::Ipv4L3Protocol/Tx(1) ns3::Ipv4Header (tos 0x0 DSCP Default ECN Not-ECT ttl 64 id 10 protocol 6 offset (bytes) 0 flags [none] length: 412 10.1.1.1 > 10.1.2.2) ns3::TcpHeader (49153 > 2430 [ACK] Seq=2881 Ack=1 Win=32768 ns3::TcpOptionTS(370;325) ns3::TcpOptionEnd(EOL)) Payload (size=360)
r 0.416062 /NodeList/0/$ns3::Ipv4L3Protocol/Rx(1) ns3::Ipv4Header (tos 0x0 DSCP Default ECN Not-ECT ttl 64 id 8 protocol 6 offset (bytes) 0 flags [none] length: 412 10.1.1.1 > 10.1.2.2) ns3::TcpHeader (49153 > 2430 [ACK] Seq=2161 Ack=1 Win=32768 ns3::TcpOptionTS(370;325) ns3::TcpOptionEnd(EOL)) Payload (size=360)
t 0.416062 /NodeList/0/$ns3::Ipv4L3Protocol/Tx(2) ns3::Ipv4Header (tos 0x0 DSCP Default ECN Not-ECT ttl 63 id 8 protocol 6 offset (bytes) 0 flags [none] length: 412 10.1.1.1 > 10.1.2.2) ns3::TcpHeader (49153 > 2430 [ACK] Seq=2161 Ack=1 Win=32768 ns3::TcpOptionTS(370;325) ns3::TcpOptionEnd(EOL)) Payload (size=360)
r 0.416394 /NodeList/0/$ns3::Ipv4L3Protocol/Rx(1) ns3::Ipv4Header (tos 0x0 DSCP Default ECN Not-ECT ttl 64 id 9 protocol 6 offset (bytes) 0 flags [none] length: 412 10.1.1.1 > 10.1.2.2) ns3::TcpHeader (49153 > 2430 [ACK] Seq=2521 Ack=1 Win=32768 ns3::TcpOptionTS(370;325) ns3::TcpOptionEnd(EOL)) Payload (size=360)
t 0.416394 /NodeList/0/$ns3::Ipv4L3Protocol/Tx(2) ns3::Ipv4Header (tos 0x0 DSCP Default ECN Not-ECT ttl 63 id 9 protocol 6 offset (bytes) 0 flags [none] length: 412 10.1.1.1 > 10.1.2.2) ns3::TcpHeader (49153 > 2430 [ACK] Seq=2521 Ack=1 Win=32768 ns3::TcpOptionTS(370;325) ns3::TcpOptionEnd(EOL)) Payload (size=360)
r 0.416725 /NodeList/0/$ns3::Ipv4L3Protocol/Rx(1) ns3::Ipv4Header (tos 0x0 DSCP Default ECN Not-ECT ttl 64 id 10 protocol 6 offset (bytes) 0 flags [none] length: 412 10.1.1.1 > 10.1.2.2) ns3::TcpHeader (49153 > 2430 [ACK] Seq=2881 Ack=1 Win=32768 ns3::TcpOptionTS(370;325) ns3::TcpOptionEnd(EOL)) Payload (size=360)
t 0.416725 /NodeList/0/$ns3::Ipv4L3Protocol/Tx(2) ns3::Ipv4Header (tos 0x0 DSCP Default ECN Not-ECT ttl 63 id 10 protocol 6 offset (bytes) 0 flags [none] length: 412 10.1.1.1 > 10.1.2.2) ns3::TcpHeader (49153 > 2430 [ACK] Seq=2881 Ack=1 Win=32768 ns3::TcpOptionTS(370;325) ns3::TcpOptionEnd(EOL)) Payload (size=360)
r 0.417728 /NodeList/2/$ns3::Ipv4L3Protocol/Rx(1) ns3::Ipv4Header (tos 0x0 DSCP Default ECN Not-ECT ttl 63 id 8 protocol 6 offset (bytes) 0 flags [none] length: 412 10.1.1.1 > 10.1.2.2) ns3::TcpHeader (49153 > 2430 [ACK] Seq=2161 Ack=1 Win=32768 ns3::TcpOptionTS(370;325) ns3::TcpOptionEnd(EOL)) Payload (size=360)
t 0.417728 /NodeList/2/$ns3::Ipv4L3Protocol/Tx(1) ns3::Ipv4Header (tos 0x0 DSCP Default ECN Not-ECT ttl 64 id 4 protocol 6 offset (bytes) 0 flags [none] length: 52 10.1.2.2 > 10.1.1.1) ns3::TcpHeader (2430 > 49153 [ACK] Seq=1 Ack=2521 Win=32768 ns3::TcpOptionTS(417;276) ns3::TcpOptionEnd(EOL))
r 0.417954 /NodeList/0/$ns3::Ipv4L3Protocol/Rx(2) ns3::Ipv4Header (tos 0x0 DSCP Default ECN Not-ECT ttl 64 id 4 protocol 6 offset (bytes) 0 flags [none] length: 52 10.1.2.2 > 10.1.1.1) ns3::TcpHeader (2430 > 49153 [ACK] Seq=1 Ack=2521 Win=32768 ns3::TcpOptionTS(417;276) ns3::TcpOptionEnd(EOL))
t 0.417954 /NodeList/0/$ns3::Ipv4L3Protocol/Tx(1) ns3::Ipv4Header (tos 0x0 DSCP Default ECN Not-ECT ttl 63 id 4 protocol 6 offset (bytes) 0 flags [none] length: 52 10.1.2.2 > 10.1.1.1) ns3::TcpHeader (2430 > 49153 [ACK] Seq=1 Ack=2521 Win=32768 ns3::TcpOptionTS(417;276) ns3::TcpOptionEnd(EOL))
r 0.419384 /NodeList/2/$ns3::Ipv4L3Protocol/Rx(1) ns3::Ipv4Header (tos 0x0 DSCP Default ECN Not-ECT ttl 63 id 9 protocol 6 offset (bytes) 0 flags [none] length: 412 10.1.1.1 > 10.1.2.2) ns3::TcpHeader (49153 > 2430 [ACK] Seq=2521 Ack=1 Win=32768 ns3::TcpOptionTS(370;325) ns3::TcpOptionEnd(EOL)) Payload (size=360)
r 0.42104 /NodeList/2/$ns3::Ipv4L3Protocol/Rx(1) ns3::Ipv4Header (tos 0x0 DSCP Default ECN Not-ECT ttl 63 id 10 protocol 6 offset (bytes) 0 flags [none] length: 412 10.1.1.1 > 10.1.2.2) ns3::TcpHeader (49153 > 2430 [ACK] Seq=2881 Ack=1 Win=32768 ns3::TcpOptionTS(370;325) ns3::TcpOptionEnd(EOL)) Payload (size=360)
t 0.42104 /NodeList/2/$ns3::Ipv4L3Protocol/Tx(1) ns3::Ipv4Header (tos 0x0 DSCP Default ECN Not-ECT ttl 64 id 5 protocol 6 offset (bytes) 0 flags [none] length: 52 10.1.2.2 > 10.1.1.1) ns3::TcpHeader (2430 > 49153 [ACK] Seq=1 Ack=3241 Win=32768 ns3::TcpOptionTS(421;370) ns3::TcpOptionEnd(EOL))
r 0.421266 /NodeList/0/$ns3::Ipv4L3Protocol/Rx(2) ns3::Ipv4Header (tos 0x0 DSCP Default ECN Not-ECT ttl 64 id 5 protocol 6 offset (bytes) 0 flags [none] length: 52 10.1.2.2 > 10.1.1.1) ns3::TcpHeader (2430 > 49153 [ACK] Seq=1 Ack=3241 Win=32768 ns3::TcpOptionTS(421;370) ns3::TcpOptionEnd(EOL))
t 0.421266 /NodeList/0/$ns3::Ipv4L3Protocol/Tx(1) ns3::Ipv4Header (tos 0x0 DSCP Default ECN Not-ECT ttl 63 id 5 protocol 6 offset (bytes) 0 flags [none] length: 52 10.1.2.2 > 10.1.1.1) ns3::TcpHeader (2430 > 49153 [ACK] Seq=1 Ack=3241 Win=32768 ns3::TcpOptionTS(421;370) ns3::TcpOptionEnd(EOL))
r 0.462998 /NodeList/1/$ns3::Ipv4L3Protocol/Rx(1) ns3::Ipv4Header (tos 0x0 DSCP Default ECN Not-ECT ttl 63 id 4 protocol 6 offset (bytes) 0 flags [none] length: 52 10.1.2.2 > 10.1.1.1) ns3::TcpHeader (2430 > 49153 [ACK] Seq=1 Ack=2521 Win=32768 ns3::TcpOptionTS(417;276) ns3::TcpOptionEnd(EOL))
t 0.462998 /NodeList/1/$ns3::Ipv4L3Protocol/Tx(1) ns3::Ipv4Header (tos 0x0 DSCP Default ECN Not-ECT ttl 64 id 11 protocol 6 offset (bytes) 0 flags [none] length: 412 10.1.1.1 > 10.1.2.2) ns3::TcpHeader (49153 > 2430 [ACK] Seq=3241 Ack=1 Win=32768 ns3::TcpOptionTS(462;417) ns3::TcpOptionEnd(EOL)) Payload (size=360)
t 0.462998 /NodeList/1/$ns3::Ipv4L3Protocol/Tx(1) ns3::Ipv4Header (tos 0x0 DSCP Default ECN Not-ECT ttl 64 id 12 protocol 6 offset (bytes) 0 flags [none] length: 412 10.1.1.1 > 10.1.2.2) ns3::TcpHeader (49153 > 2430 [ACK] Seq=3601 Ack=1 Win=32768 ns3::TcpOptionTS(462;417) ns3::TcpOptionEnd(EOL)) Payload (size=360)
t 0.462998 /NodeList/1/$ns3::Ipv4L3Protocol/Tx(1) ns3::Ipv4Header (tos 0x0 DSCP Default ECN Not-ECT ttl 64 id 13 protocol 6 offset (bytes) 0 flags [none] length: 412 10.1.1.1 > 10.1.2.2) ns3::TcpHeader (49153 > 2430 [ACK] Seq=3961 Ack=1 Win=32768 ns3::TcpOptionTS(462;417) ns3::TcpOptionEnd(EOL)) Payload (size=360)
r 0.46631 /NodeList/1/$ns3::Ipv4L3Protocol/Rx(1) ns3::Ipv4Header (tos 0x0 DSCP Default ECN Not-ECT ttl 63 id 5 protocol 6 offset (bytes) 0 flags [none] length: 52 10.1.2.2 > 10.1.1.1) ns3::TcpHeader (2430 > 49153 [ACK] Seq=1 Ack=3241 Win=32768 ns3::TcpOptionTS(421;370) ns3::TcpOptionEnd(EOL))
t 0.46631 /NodeList/1/$ns3::Ipv4L3Protocol/Tx(1) ns3::Ipv4Header (tos 0x0 DSCP Default ECN Not-ECT ttl 64 id 14 protocol 6 offset (bytes) 0 flags [none] length: 412 10.1.1.1 > 10.1.2.2) ns3::TcpHeader (49153 > 2430 [ACK] Seq=4321 Ack=1 Win=32768 ns3::TcpOptionTS(466;421) ns3::TcpOptionEnd(EOL)) Payload (size=360)
t 0.46631 /NodeList/1/$ns3::Ipv4L3Protocol/Tx(1) ns3::Ipv4Header (tos 0x0 DSCP Default ECN Not-ECT ttl 64 id 15 protocol 6 offset (bytes) 0 flags [none] length: 412 10.1.1.1 > 10.1.2.2) ns3::TcpHeader (49153 > 2430 [ACK] Seq=4681 Ack=1 Win=32768 ns3::TcpOptionTS(466;421) ns3::TcpOptionEnd(EOL)) Payload (size=360)
t 0.46631 /NodeList/1/$ns3::Ipv4L3Protocol/Tx(1) ns3::Ipv4Header (tos 0x0 DSCP Default ECN Not-ECT ttl 64 id 16 protocol 6 offset (bytes) 0 flags [none] length: 412 10.1.1.1 > 10.1.2.2) ns3::TcpHeader (49153 > 2430 [ACK] Seq=5041 Ack=1 Win=32768 ns3::TcpOptionTS(466;421) ns3::TcpOptionEnd(EOL)) Payload (size=360)
r 0.508329 /NodeList/0/$ns3::Ipv4L3Protocol/Rx(1) ns3::Ipv4Header (tos 0x0 DSCP Default ECN Not-ECT ttl 64 id 11 protocol 6 offset (bytes) 0 flags [none] length: 412 10.1.1.1 > 10.1.2.2) ns3::TcpHeader (49153 > 2430 [ACK] Seq=3241 Ack=1 Win=32768 ns3::TcpOptionTS(462;417) ns3::TcpOptionEnd(EOL)) Payload (size=360)
t 0.508329 /NodeList/0/$ns3::Ipv4L3Protocol/Tx(2) ns3::Ipv4Header (tos 0x0 DSCP Default ECN Not-ECT ttl 63 id 11 protocol 6 offset (bytes) 0 flags [none] length: 412 10.1.1.1 > 10.1.2.2) ns3::TcpHeader (49153 > 2430 [ACK] Seq=3241 Ack=1 Win=32768 ns3::TcpOptionTS(462;417) ns3::TcpOptionEnd(EOL)) Payload (size=360)
r 0.50866 /NodeList/0/$ns3::Ipv4L3Protocol/Rx(1) ns3::Ipv4Header (tos 0x0 DSCP Default ECN Not-ECT ttl 64 id 12 protocol 6 offset (bytes) 0 flags [none] length: 412 10.1.1.1 > 10.1.2.2) ns3::TcpHeader (49153 > 2430 [ACK] Seq=3601 Ack=1 Win=32768 ns3::TcpOptionTS(462;417) ns3::TcpOptionEnd(EOL)) Payload (size=360)
t 0.50866 /NodeList/0/$ns3::Ipv4L3Protocol/Tx(2) ns3::Ipv4Header (tos 0x0 DSCP Default ECN Not-ECT ttl 63 id 12 protocol 6 offset (bytes) 0 flags [none] length: 412 10.1.1.1 > 10.1.2.2) ns3::TcpHeader (49153 > 2430 [ACK] Seq=3601 Ack=1 Win=32768 ns3::TcpOptionTS(462;417) ns3::TcpOptionEnd(EOL)) Payload (size=360)
r 0.508991 /NodeList/0/$ns3::Ipv4L3Protocol/Rx(1) ns3::Ipv4Header (tos 0x0 DSCP Default ECN Not-ECT ttl 64 id 13 protocol 6 offset (bytes) 0 flags [none] length: 412 10.1.1.1 > 10.1.2.2) ns3::TcpHeader (49153 > 2430 [ACK] Seq=3961 Ack=1 Win=32768 ns3::TcpOptionTS(462;417) ns3::TcpOptionEnd(EOL)) Payload (size=360)
t 0.508991 /NodeList/0/$ns3::Ipv4L3Protocol/Tx(2) ns3::Ipv4Header (tos 0x0 DSCP Default ECN Not-ECT ttl 63 id 13 protocol 6 offset (bytes) 0 flags [none] length: 412 10.1.1.1 > 10.1.2.2) ns3::TcpHeader (49153 > 2430 [ACK] Seq=3961 Ack=1 Win=32768 ns3::TcpOptionTS(462;417) ns3::TcpOptionEnd(EOL)) Payload (size=360)
r 0.509995 /NodeList/2/$ns3::Ipv4L3Protocol/Rx(1) ns3::Ipv4Header (tos 0x0 DSCP Default ECN Not-ECT ttl 63 id 11 protocol 6 offset (bytes) 0 flags [none] length: 412 10.1.1.1 > 10.1.2.2) ns3::TcpHeader (49153 > 2430 [ACK] Seq=3241 Ack=1 Win=32768 ns3::TcpOptionTS(462;417) ns3::TcpOptionEnd(EOL)) Payload (size=360)
r 0.511641 /NodeList/0/$ns3::Ipv4L3Protocol/Rx(1) ns3::Ipv4Header (tos 0x0 DSCP Default ECN Not-ECT ttl 64 id 14 protocol 6 offset (bytes) 0 flags [none] length: 412 10.1.1.1 > 10.1.2.2) ns3::TcpHeader (49153 > 2430 [ACK] Seq=4321 Ack=1 Win=32768 ns3::TcpOptionTS(466;421) ns3::TcpOptionEnd(EOL)) Payload (size=360)
t 0.511641 /NodeList/0/$ns3::Ipv4L3Protocol/Tx(2) ns3::Ipv4Header (tos 0x0 DSCP Default ECN Not-ECT ttl 63 id 14 protocol 6 offset (bytes) 0 flags [none] length: 412 10.1.1.1 > 10.1.2.2) ns3::TcpHeader (49153 > 2430 [ACK] Seq=4321 Ack=1 Win=32768 ns3::TcpOptionTS(466;421) ns3::TcpOptionEnd(EOL)) Payload (size=360)
r 0.511651 /NodeList/2/$ns3::Ipv4L3Protocol/Rx(1) ns3::Ipv4Header (tos 0x0 DSCP Default ECN Not-ECT ttl 63 id 12 protocol 6 offset (bytes) 0 flags [none] length: 412 10.1.1.1 > 10.1.2.2) ns3::TcpHeader (49153 > 2430 [ACK] Seq=3601 Ack=1 Win=32768 ns3::TcpOptionTS(462;417) ns3::TcpOptionEnd(EOL)) Payload (size=360)
t 0.511651 /NodeList/2/$ns3::Ipv4L3Protocol/Tx(1) ns3::Ipv4Header (tos 0x0 DSCP Default ECN Not-ECT ttl 64 id 6 protocol 6 offset (bytes) 0 flags [none] length: 52 10.1.2.2 > 10.1.1.1) ns3::TcpHeader (2430 > 49153 [ACK] Seq=1 Ack=3961 Win=32768 ns3::TcpOptionTS(511;462) ns3::TcpOptionEnd(EOL))
r 0.511877 /NodeList/0/$ns3::Ipv4L3Protocol/Rx(2) ns3::Ipv4Header (tos 0x0 DSCP Default ECN Not-ECT ttl 64 id 6 protocol 6 offset (bytes) 0 flags [none] length: 52 10.1.2.2 > 10.1.1.1) ns3::TcpHeader (2430 > 49153 [ACK] Seq=1 Ack=3961 Win=32768 ns3::TcpOptionTS(511;462) ns3::TcpOptionEnd(EOL))
t 0.511877 /NodeList/0/$ns3::Ipv4L3Protocol/Tx(1) ns3::Ipv4Header (tos 0x0 DSCP Default ECN Not-ECT ttl 63 id 6 protocol 6 offset (bytes) 0 flags [none] length: 52 10.1.2.2 > 10.1.1.1) ns3::TcpHeader (2430 > 49153 [ACK] Seq=1 Ack=3961 Win=32768 ns3::TcpOptionTS(511;462) ns3::TcpOptionEnd(EOL))
r 0.511972 /NodeList/0/$ns3::Ipv4L3Protocol/Rx(1) ns3::Ipv4Header (tos 0x0 DSCP Default ECN Not-ECT ttl 64 id 15 protocol 6 offset (bytes) 0 flags [none] length: 412 10.1.1.1 > 10.1.2.2) ns3::TcpHeader (49153 > 2430 [ACK] Seq=4681 Ack=1 Win=32768 ns3::TcpOptionTS(466;421) ns3::TcpOptionEnd(EOL)) Payload (size=360)
t 0.511972 /NodeList/0/$ns3::Ipv4L3Protocol/Tx(2) ns3::Ipv4Header (tos 0x0 DSCP Default ECN Not-ECT ttl 63 id 15 protocol 6 offset (bytes) 0 flags [none] length: 412 10.1.1.1 > 10.1.2.2) ns3::TcpHeader (49153 > 2430 [ACK] Seq=4681 Ack=1 Win=32768 ns3::TcpOptionTS(466;421) ns3::TcpOptionEnd(EOL)) Payload (size=360)
r 0.512303 /NodeList/0/$ns3::Ipv4L3Protocol/Rx(1) ns3::Ipv4Header (tos 0x0 DSCP Default ECN Not-ECT ttl 64 id 16 protocol 6 offset (bytes) 0 flags [none] length: 412 10.1.1.1 > 10.1.2.2) ns3::TcpHeader (49153 > 2430 [ACK] Seq=5041 Ack=1 Win=32768 ns3::TcpOptionTS(466;421) ns3::TcpOptionEnd(EOL)) Payload (size=360)
t 0.512303 /NodeList/0/$ns3::Ipv4L3Protocol/Tx(2) ns3::Ipv4Header (tos 0x0 DSCP Default ECN Not-ECT ttl 63 id 16 protocol 6 offset (bytes) 0 flags [none] length: 412 10.1.1.1 > 10.1.2.2) ns3::TcpHeader (49153 > 2430 [ACK] Seq=5041 Ack=1 Win=32768 ns3::TcpOptionTS(466;421) ns3::TcpOptionEnd(EOL)) Payload (size=360)
r 0.513307 /NodeList/2/$ns3::Ipv4L3Protocol/Rx(1) ns3::Ipv4Header (tos 0x0 DSCP Default ECN Not-ECT ttl 63 id 13 protocol 6 offset (bytes) 0 flags [none] length: 412 10.1.1.1 > 10.1.2.2) ns3::TcpHeader (49153 > 2430 [ACK] Seq=3961 Ack=1 Win=32768 ns3::TcpOptionTS(462;417) ns3::TcpOptionEnd(EOL)) Payload (size=360)
r 0.514963 /NodeList/2/$ns3::Ipv4L3Protocol/Rx(1) ns3::Ipv4Header (tos 0x0 DSCP Default ECN Not-ECT ttl 63 id 14 protocol 6 offset (bytes) 0 flags [none] length: 412 10.1.1.1 > 10.1.2.2) ns3::TcpHeader (49153 > 2430 [ACK] Seq=4321 Ack=1 Win=32768 ns3::TcpOptionTS(466;421) ns3::TcpOptionEnd(EOL)) Payload (size=360)
t 0.514963 /NodeList/2/$ns3::Ipv4L3Protocol/Tx(1) ns3::Ipv4Header (tos 0x0 DSCP Default ECN Not-ECT ttl 64 id 7 protocol 6 offset (bytes) 0 flags [none] length: 52 10.1.2.2 > 10.1.1.1) ns3::TcpHeader (2430 > 49153 [ACK] Seq=1 Ack=4681 Win=32768 ns3::TcpOptionTS(514;462) ns3::TcpOptionEnd(EOL))
r 0.515189 /NodeList/0/$ns3::Ipv4L3Protocol/Rx(2) ns3::Ipv4Header (tos 0x0 DSCP Default ECN Not-ECT ttl 64 id 7 protocol 6 offset (bytes) 0 flags [none] length: 52 10.1.2.2 > 10.1.1.1) ns3::TcpHeader (2430 > 49153 [ACK] Seq=1 Ack=4681 Win=32768 ns3::TcpOptionTS(514;462) ns3::TcpOptionEnd(EOL))
t 0.515189 /NodeList/0/$ns3::Ipv4L3Protocol/Tx(1) ns3::Ipv4Header (tos 0x0 DSCP Default ECN Not-ECT ttl 63 id 7 protocol 6 offset (bytes) 0 flags [none] length: 52 10.1.2.2 > 10.1.1.1) ns3::TcpHeader (2430 > 49153 [ACK] Seq=1 Ack=4681 Win=32768 ns3::TcpOptionTS(514;462) ns3::TcpOptionEnd(EOL))